 Gaussian 16, Revision C.01,
 Gaussian 16:  EM64L-G16RevC.01  3-Jul-2019

 ----------------------------------------------------------------------
 #P HF/6-31G(d) Opt=(Tight,MaxCycle=45) GFInput GFPrint SCF(Conver=8,XQ
 C,MaxConventionalCycles=64,MaxCycle=128) Test
 ----------------------------------------------------------------------

 -------------------------------------------------------
 Optimization step - Input generated by PyRED MOLECULE-1
 -------------------------------------------------------
 Symbolic Z-matrix:
 Charge =  0 Multiplicity = 1

 SCF Done:  E(RHF) =  -1478.17196421     A.U. after   16 cycles
 SCF Done:  E(RHF) =  -1478.17196421     A.U. after    6 cycles
 SCF Done:  E(RHF) =  -1478.17196421     A.U. after    5 cycles
 SCF Done:  E(RHF) =  -1478.17196421     A.U. after    5 cycles
 SCF Done:  E(RHF) =  -1478.17196421     A.U. after    4 cycles
 SCF Done:  E(RHF) =  -1478.17196421     A.U. after    4 cycles
 SCF Done:  E(RHF) =  -1478.17196421     A.U. after    4 cycles
 SCF Done:  E(RHF) =  -1478.17196421     A.U. after    4 cycles
 SCF Done:  E(RHF) =  -1478.17196421     A.U. after    4 cycles
 SCF Done:  E(RHF) =  -1478.17196421     A.U. after    4 cycles
 Optimization completed.
    -- Stationary point found.

                         Standard orientation:
 ---------------------------------------------------------------------
 Center     Atomic      Atomic             Coordinates (Angstroms)
 Number     Number       Type             X           Y           Z
 ---------------------------------------------------------------------
      1         16           0       -3.928001    1.317637    0.670215
      2          6           0       -5.637873    1.792896    0.631275
      3          8           0       -6.133421    2.623571    1.310522
      4          7           0       -6.306391    1.041978   -0.309148
      5          1           0       -7.286320    1.179997   -0.445764
      6          6           0       -5.621185    0.100683   -1.030124
      7          8           0       -6.115423   -0.609227   -1.844740
      8          6           0       -4.144048    0.079972   -0.657741
      9          1           0       -3.596681    0.415751   -1.528845
     10          6           0       -3.681959   -1.339348   -0.285163
     11          1           0       -4.212607   -1.662157    0.603936
     12          1           0       -3.990797   -1.989469   -1.095629
     13          6           0       -2.187748   -1.445536   -0.070483
     14          6           0       -1.322769   -1.571650   -1.145067
     15          1           0       -1.718490   -1.614450   -2.145896
     16          6           0        0.052096   -1.656135   -0.974473
     17          1           0        0.681399   -1.756803   -1.836829
     18          6           0        0.587132   -1.616551    0.304750
     19          6           0       -0.268080   -1.497748    1.396262
     20          1           0        0.156096   -1.475229    2.382805
     21          6           0       -1.630942   -1.415149    1.206818
     22          1           0       -2.272360   -1.327742    2.066057
     23          8           0        1.901148   -1.695632    0.587611
     24          6           0        2.848605   -1.785781   -0.450982
     25          1           0        2.700467   -2.707966   -1.006921
     26          1           0        2.746796   -0.948763   -1.129438
     27          6           0        4.231831   -1.786801    0.176412
     28          1           0        4.955945   -1.991816   -0.597140
     29          1           0        4.284622   -2.586889    0.904170
     30          7           0        4.583397   -0.548941    0.842455
     31          6           0        4.241373   -0.379875    2.238256
     32          1           0        3.857462   -1.313062    2.618921
     33          1           0        5.111208   -0.106665    2.828238
     34          1           0        3.474201    0.375188    2.383017
     35          6           0        5.054665    0.510229    0.111951
     36          7           0        5.215792    0.322904   -1.190503
     37          6           0        5.691990    1.313238   -1.928130
     38          1           0        5.802024    1.094740   -2.976747
     39          6           0        6.031561    2.553298   -1.438259
     40          1           0        6.410724    3.322522   -2.083620
     41          6           0        5.852020    2.755994   -0.073729
     42          1           0        6.094786    3.705035    0.371312
     43          6           0        5.362753    1.745361    0.716936
     44          1           0        5.224987    1.901729    1.767114
 ---------------------------------------------------------------------
 Mulliken charges:
     1  S    0.229594
     2  C    0.573854
     3  O   -0.539385
     4  N   -0.826833
     5  H    0.427229
     6  C    0.808587
     7  O   -0.560383
     8  C   -0.480092
     9  H    0.255650
    10  C   -0.351440
    11  H    0.199570
    12  H    0.227252
    13  C   -0.005424
    14  C   -0.204368
    15  H    0.205402
    16  C   -0.282764
    17  H    0.217084
    18  C    0.448865
    19  C   -0.252869
    20  H    0.215776
    21  C   -0.197346
    22  H    0.214051
    23  O   -0.678138
    24  C   -0.006774
    25  H    0.154942
    26  H    0.188215
    27  C   -0.122868
    28  H    0.214034
    29  H    0.181340
    30  N   -0.700708
    31  C   -0.277691
    32  H    0.191482
    33  H    0.165054
    34  H    0.172191
    35  C    0.678809
    36  N   -0.657927
    37  C    0.096112
    38  H    0.196062
    39  C   -0.299507
    40  H    0.202337
    41  C   -0.123887
    42  H    0.210203
    43  C   -0.317517
    44  H    0.212224
 Sum of Mulliken charges =  -0.00000
 Dipole moment (field-independent basis, Debye):
    X=              2.4953    Y=             -0.9661    Z=             -0.2774  Tot=              2.6901
 Quadrupole moment (field-independent basis, Debye-Ang):
   XX=           -161.8587   YY=           -156.6146   ZZ=           -149.6661
   XY=             10.5096   XZ=              5.0208   YZ=             -7.3930

 Normal termination of Gaussian 16 at Fri Feb 14 01:51:20 2025.
