 Gaussian 16, Revision C.01,
 Gaussian 16:  EM64L-G16RevC.01  3-Jul-2019

 ----------------------------------------------------------------------
 #P HF/6-31G(d) SCF(Conver=8,XQC,MaxConventionalCycles=64,MaxCycle=128)
  NoSymm Test Pop=mk IOp(6/33=2) GFInput GFPrint
 ----------------------------------------------------------------------

 ----------------------------------------------
 MEP step - Input generated by PyRED MOLECULE-1
 ----------------------------------------------
 Symbolic Z-matrix:
 Charge =  0 Multiplicity = 1

                          Input orientation:
 ---------------------------------------------------------------------
 Center     Atomic      Atomic             Coordinates (Angstroms)
 Number     Number       Type             X           Y           Z
 ---------------------------------------------------------------------
      1         16           0        0.066424   -4.559545    2.568195
      2          6           0       -0.615427   -6.160581    2.918644
      3          8           0       -0.156468   -6.951401    3.667593
      4          7           0       -1.761945   -6.347911    2.180002
      5          1           0       -2.261953   -7.209579    2.254122
      6          6           0       -2.189390   -5.356645    1.337368
      7          8           0       -3.151501   -5.435462    0.644567
      8          6           0       -1.276840   -4.138400    1.401904
      9          1           0       -1.859453   -3.332933    1.829647
     10          6           0       -0.795528   -3.726366   -0.000015
     11          1           0       -0.189502   -4.524510   -0.414730
     12          1           0       -1.680596   -3.641699   -0.619998
     13          6           0       -0.024262   -2.424411   -0.009637
     14          6           0       -0.685198   -1.207047   -0.005962
     15          1           0       -1.761996   -1.184929   -0.016065
     16          6           0        0.000000    0.000000    0.000000
     17          1           0       -0.555397    0.917249   -0.001256
     18          6           0        1.387170    0.000000    0.000000
     19          6           0        2.067275   -1.214179   -0.011278
     20          1           0        3.141295   -1.202823   -0.018405
     21          6           0        1.369270   -2.402817   -0.017082
     22          1           0        1.916742   -3.328810   -0.029721
     23          8           0        2.152583    1.107721    0.000000
     24          6           0        1.557676    2.383922    0.043297
     25          1           0        0.961547    2.543983   -0.851380
     26          1           0        0.916634    2.473098    0.910695
     27          6           0        2.669733    3.416623    0.104913
     28          1           0        2.229821    4.396669    0.001268
     29          1           0        3.338389    3.260173   -0.732334
     30          7           0        3.454869    3.372854    1.321940
     31          6           0        4.614956    2.509891    1.379542
     32          1           0        4.791293    2.096463    0.399178
     33          1           0        5.502321    3.059718    1.678892
     34          1           0        4.474097    1.680237    2.066173
     35          6           0        2.993206    3.988737    2.455575
     36          7           0        1.848908    4.651343    2.360839
     37          6           0        1.380613    5.280751    3.426750
     38          1           0        0.449804    5.802278    3.281666
     39          6           0        1.998723    5.293022    4.655904
     40          1           0        1.571778    5.818098    5.488956
     41          6           0        3.193602    4.588375    4.760783
     42          1           0        3.724728    4.555246    5.695922
     43          6           0        3.705188    3.928544    3.670455
     44          1           0        4.624968    3.386576    3.751569
 ---------------------------------------------------------------------

 SCF Done:  E(RHF) =  -1478.17196421     A.U. after   16 cycles

 Mulliken charges:
     1  S    0.229594
     2  C    0.573854
     3  O   -0.539384
     4  N   -0.826833
     5  H    0.427229
     6  C    0.808587
     7  O   -0.560383
     8  C   -0.480092
     9  H    0.255650
    10  C   -0.351440
    11  H    0.199570
    12  H    0.227252
    13  C   -0.005424
    14  C   -0.204369
    15  H    0.205402
    16  C   -0.282763
    17  H    0.217084
    18  C    0.448865
    19  C   -0.252868
    20  H    0.215776
    21  C   -0.197346
    22  H    0.214051
    23  O   -0.678138
    24  C   -0.006774
    25  H    0.154942
    26  H    0.188214
    27  C   -0.122867
    28  H    0.214033
    29  H    0.181340
    30  N   -0.700708
    31  C   -0.277691
    32  H    0.191482
    33  H    0.165054
    34  H    0.172191
    35  C    0.678809
    36  N   -0.657926
    37  C    0.096112
    38  H    0.196062
    39  C   -0.299507
    40  H    0.202337
    41  C   -0.123888
    42  H    0.210203
    43  C   -0.317516
    44  H    0.212225
 Sum of Mulliken charges =  -0.00000
 Dipole moment (field-independent basis, Debye):
    X=              0.6790    Y=              2.4889    Z=             -0.7621  Tot=              2.6901
 Quadrupole moment (field-independent basis, Debye-Ang):
   XX=           -146.8144   YY=           -168.6814   ZZ=           -156.6440
   XY=              1.7366   XZ=             -2.6675   YZ=             16.0870

 ESP charges:
     1  S   -0.219337
     2  C    0.605428
     3  O   -0.480991
     4  N   -0.611279
     5  H    0.397243
     6  C    0.629569
     7  O   -0.549973
     8  C    0.136806
     9  H    0.045329
    10  C   -0.082526
    11  H    0.058653
    12  H    0.054735
    13  C   -0.105890
    14  C   -0.049413
    15  H    0.139927
    16  C   -0.397694
    17  H    0.161993
    18  C    0.524409
    19  C   -0.439213
    20  H    0.192126
    21  C    0.057979
    22  H    0.089516
    23  O   -0.407655
    24  C    0.175386
    25  H    0.029211
    26  H    0.066655
    27  C   -0.147767
    28  H    0.082894
    29  H    0.126861
    30  N   -0.307846
    31  C   -0.175828
    32  H    0.117596
    33  H    0.065170
    34  H    0.089121
    35  C    0.866567
    36  N   -0.697394
    37  C    0.354463
    38  H    0.069926
    39  C   -0.534402
    40  H    0.192547
    41  C    0.221282
    42  H    0.106771
    43  C   -0.675639
    44  H    0.224683
 Sum of ESP charges =  -0.00000

 Normal termination of Gaussian 16 at Fri Feb 14 01:52:27 2025.
